s 1.000000000 _0_ AGT  --- 0 cbr 512 [0 0 0 0] ------- [0:0 4:0 32 0] [0] 0 0
r 1.000000000 _0_ RTR  --- 0 cbr 512 [0 0 0 0] ------- [0:0 4:0 32 0] [0] 0 0
M 1.00000 0 (100.00, 100.00, 0.00), (400.00, 400.00), 10.00
s 1.000000000 _0_ RTR  --- 0 AODV 48 [0 0 0 0] ------- [0:255 -1:255 30 0] [0x2 1 1 [4 0] [0 4]] (REQUEST)
s 1.000535000 _0_ MAC  --- 0 AODV 106 [0 ffffffff 0 800] ------- [0:255 -1:255 30 0] [0x2 1 1 [4 0] [0 4]] (REQUEST)
r 1.001383471 _1_ MAC  --- 0 AODV 48 [0 ffffffff 0 800] ------- [0:255 -1:255 30 0] [0x2 1 1 [4 0] [0 4]] (REQUEST)
r 1.001408471 _1_ RTR  --- 0 AODV 48 [0 ffffffff 0 800] ------- [0:255 -1:255 30 0] [0x2 1 1 [4 0] [0 4]] (REQUEST)
s 1.001550518 _1_ RTR  --- 0 AODV 48 [0 ffffffff 0 800] ------- [1:255 -1:255 29 0] [0x2 2 1 [4 0] [0 4]] (REQUEST)
s 1.001925518 _1_ MAC  --- 0 AODV 106 [0 ffffffff 1 800] ------- [1:255 -1:255 29 0] [0x2 2 1 [4 0] [0 4]] (REQUEST)
r 1.002773989 _0_ MAC  --- 0 AODV 48 [0 ffffffff 1 800] ------- [1:255 -1:255 29 0] [0x2 2 1 [4 0] [0 4]] (REQUEST)
r 1.002773989 _2_ MAC  --- 0 AODV 48 [0 ffffffff 1 800] ------- [1:255 -1:255 29 0] [0x2 2 1 [4 0] [0 4]] (REQUEST)
r 1.002798989 _0_ RTR  --- 0 AODV 48 [0 ffffffff 1 800] ------- [1:255 -1:255 29 0] [0x2 2 1 [4 0] [0 4]] (REQUEST)
r 1.002798989 _2_ RTR  --- 0 AODV 48 [0 ffffffff 1 800] ------- [1:255 -1:255 29 0] [0x2 2 1 [4 0] [0 4]] (REQUEST)
s 1.010790544 _2_ RTR  --- 0 AODV 48 [0 ffffffff 1 800] ------- [2:255 -1:255 28 0] [0x2 3 1 [4 0] [0 4]] (REQUEST)
s 1.011025544 _2_ MAC  --- 0 AODV 106 [0 ffffffff 2 800] ------- [2:255 -1:255 28 0] [0x2 3 1 [4 0] [0 4]] (REQUEST)
r 1.011874015 _1_ MAC  --- 0 AODV 48 [0 ffffffff 2 800] ------- [2:255 -1:255 28 0] [0x2 3 1 [4 0] [0 4]] (REQUEST)
r 1.011874015 _3_ MAC  --- 0 AODV 48 [0 ffffffff 2 800] ------- [2:255 -1:255 28 0] [0x2 3 1 [4 0] [0 4]] (REQUEST)
r 1.011899015 _1_ RTR  --- 0 AODV 48 [0 ffffffff 2 800] ------- [2:255 -1:255 28 0] [0x2 3 1 [4 0] [0 4]] (REQUEST)
r 1.011899015 _3_ RTR  --- 0 AODV 48 [0 ffffffff 2 800] ------- [2:255 -1:255 28 0] [0x2 3 1 [4 0] [0 4]] (REQUEST)
s 1.014245033 _3_ RTR  --- 0 AODV 48 [0 ffffffff 2 800] ------- [3:255 -1:255 27 0] [0x2 4 1 [4 0] [0 4]] (REQUEST)
s 1.014680033 _3_ MAC  --- 0 AODV 106 [0 ffffffff 3 800] ------- [3:255 -1:255 27 0] [0x2 4 1 [4 0] [0 4]] (REQUEST)
r 1.015528504 _2_ MAC  --- 0 AODV 48 [0 ffffffff 3 800] ------- [3:255 -1:255 27 0] [0x2 4 1 [4 0] [0 4]] (REQUEST)
r 1.015528504 _4_ MAC  --- 0 AODV 48 [0 ffffffff 3 800] ------- [3:255 -1:255 27 0] [0x2 4 1 [4 0] [0 4]] (REQUEST)
r 1.015553504 _2_ RTR  --- 0 AODV 48 [0 ffffffff 3 800] ------- [3:255 -1:255 27 0] [0x2 4 1 [4 0] [0 4]] (REQUEST)
r 1.015553504 _4_ RTR  --- 0 AODV 48 [0 ffffffff 3 800] ------- [3:255 -1:255 27 0] [0x2 4 1 [4 0] [0 4]] (REQUEST)
s 1.015553504 _4_ RTR  --- 0 AODV 44 [0 0 0 0] ------- [4:255 0:255 30 3] [0x4 1 [4 4] 10.000000] (REPLY)
s 1.015848504 _4_ MAC  --- 0 ARP 86 [0 ffffffff 4 806] ------- [REQUEST 4/4 0/3]
r 1.016536976 _3_ MAC  --- 0 ARP 28 [0 ffffffff 4 806] ------- [REQUEST 4/4 0/3]
s 1.017131976 _3_ MAC  --- 0 RTS 44 [52e 4 3 0] 
r 1.017484447 _4_ MAC  --- 0 RTS 44 [52e 4 3 0] 
s 1.017494447 _4_ MAC  --- 0 CTS 38 [3f4 3 0 0] 
r 1.017798918 _3_ MAC  --- 0 CTS 38 [3f4 3 0 0] 
s 1.017808918 _3_ MAC  --- 0 ARP 86 [13a 4 3 806] ------- [REPLY 3/3 4/4]
r 1.018497390 _4_ MAC  --- 0 ARP 28 [13a 4 3 806] ------- [REPLY 3/3 4/4]
s 1.018507390 _4_ MAC  --- 0 ACK 38 [0 3 0 0] 
r 1.018811861 _3_ MAC  --- 0 ACK 38 [0 3 0 0] 
s 1.019021390 _4_ MAC  --- 0 RTS 44 [5ae 3 4 0] 
r 1.019373861 _3_ MAC  --- 0 RTS 44 [5ae 3 4 0] 
s 1.019383861 _3_ MAC  --- 0 CTS 38 [474 4 0 0] 
r 1.019688333 _4_ MAC  --- 0 CTS 38 [474 4 0 0] 
s 1.019698333 _4_ MAC  --- 0 AODV 102 [13a 3 4 800] ------- [4:255 0:255 30 3] [0x4 1 [4 4] 10.000000] (REPLY)
r 1.020514804 _3_ MAC  --- 0 AODV 44 [13a 3 4 800] ------- [4:255 0:255 30 3] [0x4 1 [4 4] 10.000000] (REPLY)
s 1.020524804 _3_ MAC  --- 0 ACK 38 [0 4 0 0] 
r 1.020539804 _3_ RTR  --- 0 AODV 44 [13a 3 4 800] ------- [4:255 0:255 30 3] [0x4 1 [4 4] 10.000000] (REPLY)
f 1.020539804 _3_ RTR  --- 0 AODV 44 [13a 3 4 800] ------- [4:255 0:255 29 2] [0x4 2 [4 4] 10.000000] (REPLY)
r 1.020829275 _4_ MAC  --- 0 ACK 38 [0 4 0 0] 
s 1.021098804 _3_ MAC  --- 0 ARP 86 [0 ffffffff 3 806] ------- [REQUEST 3/3 0/2]
r 1.021787275 _2_ MAC  --- 0 ARP 28 [0 ffffffff 3 806] ------- [REQUEST 3/3 0/2]
r 1.021787275 _4_ MAC  --- 0 ARP 28 [0 ffffffff 3 806] ------- [REQUEST 3/3 0/2]
s 1.022322275 _2_ MAC  --- 0 RTS 44 [52e 3 2 0] 
r 1.022674747 _3_ MAC  --- 0 RTS 44 [52e 3 2 0] 
s 1.022684747 _3_ MAC  --- 0 CTS 38 [3f4 2 0 0] 
r 1.022989218 _2_ MAC  --- 0 CTS 38 [3f4 2 0 0] 
s 1.022999218 _2_ MAC  --- 0 ARP 86 [13a 3 2 806] ------- [REPLY 2/2 3/3]
r 1.023687690 _3_ MAC  --- 0 ARP 28 [13a 3 2 806] ------- [REPLY 2/2 3/3]
s 1.023697690 _3_ MAC  --- 0 ACK 38 [0 2 0 0] 
r 1.024002161 _2_ MAC  --- 0 ACK 38 [0 2 0 0] 
s 1.024391690 _3_ MAC  --- 0 RTS 44 [5ae 2 3 0] 
r 1.024744161 _2_ MAC  --- 0 RTS 44 [5ae 2 3 0] 
s 1.024754161 _2_ MAC  --- 0 CTS 38 [474 3 0 0] 
r 1.025058633 _3_ MAC  --- 0 CTS 38 [474 3 0 0] 
s 1.025068633 _3_ MAC  --- 0 AODV 102 [13a 2 3 800] ------- [4:255 0:255 29 2] [0x4 2 [4 4] 10.000000] (REPLY)
r 1.025885104 _2_ MAC  --- 0 AODV 44 [13a 2 3 800] ------- [4:255 0:255 29 2] [0x4 2 [4 4] 10.000000] (REPLY)
s 1.025895104 _2_ MAC  --- 0 ACK 38 [0 3 0 0] 
r 1.025910104 _2_ RTR  --- 0 AODV 44 [13a 2 3 800] ------- [4:255 0:255 29 2] [0x4 2 [4 4] 10.000000] (REPLY)
f 1.025910104 _2_ RTR  --- 0 AODV 44 [13a 2 3 800] ------- [4:255 0:255 28 1] [0x4 3 [4 4] 10.000000] (REPLY)
r 1.026199575 _3_ MAC  --- 0 ACK 38 [0 3 0 0] 
s 1.026449104 _2_ MAC  --- 0 ARP 86 [0 ffffffff 2 806] ------- [REQUEST 2/2 0/1]
r 1.027137575 _1_ MAC  --- 0 ARP 28 [0 ffffffff 2 806] ------- [REQUEST 2/2 0/1]
r 1.027137575 _3_ MAC  --- 0 ARP 28 [0 ffffffff 2 806] ------- [REQUEST 2/2 0/1]
s 1.027432575 _1_ MAC  --- 0 RTS 44 [52e 2 1 0] 
r 1.027785047 _2_ MAC  --- 0 RTS 44 [52e 2 1 0] 
s 1.027795047 _2_ MAC  --- 0 CTS 38 [3f4 1 0 0] 
r 1.028099518 _1_ MAC  --- 0 CTS 38 [3f4 1 0 0] 
s 1.028109518 _1_ MAC  --- 0 ARP 86 [13a 2 1 806] ------- [REPLY 1/1 2/2]
r 1.028797990 _2_ MAC  --- 0 ARP 28 [13a 2 1 806] ------- [REPLY 1/1 2/2]
s 1.028807990 _2_ MAC  --- 0 ACK 38 [0 1 0 0] 
r 1.029112461 _1_ MAC  --- 0 ACK 38 [0 1 0 0] 
s 1.029601990 _2_ MAC  --- 0 RTS 44 [5ae 1 2 0] 
r 1.029954461 _1_ MAC  --- 0 RTS 44 [5ae 1 2 0] 
s 1.029964461 _1_ MAC  --- 0 CTS 38 [474 2 0 0] 
r 1.030268932 _2_ MAC  --- 0 CTS 38 [474 2 0 0] 
s 1.030278932 _2_ MAC  --- 0 AODV 102 [13a 1 2 800] ------- [4:255 0:255 28 1] [0x4 3 [4 4] 10.000000] (REPLY)
r 1.031095404 _1_ MAC  --- 0 AODV 44 [13a 1 2 800] ------- [4:255 0:255 28 1] [0x4 3 [4 4] 10.000000] (REPLY)
s 1.031105404 _1_ MAC  --- 0 ACK 38 [0 2 0 0] 
r 1.031120404 _1_ RTR  --- 0 AODV 44 [13a 1 2 800] ------- [4:255 0:255 28 1] [0x4 3 [4 4] 10.000000] (REPLY)
f 1.031120404 _1_ RTR  --- 0 AODV 44 [13a 1 2 800] ------- [4:255 0:255 27 0] [0x4 4 [4 4] 10.000000] (REPLY)
r 1.031409875 _2_ MAC  --- 0 ACK 38 [0 2 0 0] 
s 1.032039404 _1_ MAC  --- 0 ARP 86 [0 ffffffff 1 806] ------- [REQUEST 1/1 0/0]
r 1.032727874 _0_ MAC  --- 0 ARP 28 [0 ffffffff 1 806] ------- [REQUEST 1/1 0/0]
r 1.032727875 _2_ MAC  --- 0 ARP 28 [0 ffffffff 1 806] ------- [REQUEST 1/1 0/0]
s 1.033142874 _0_ MAC  --- 0 RTS 44 [52e 1 0 0] 
r 1.033495344 _1_ MAC  --- 0 RTS 44 [52e 1 0 0] 
s 1.033505344 _1_ MAC  --- 0 CTS 38 [3f4 0 0 0] 
r 1.033809815 _0_ MAC  --- 0 CTS 38 [3f4 0 0 0] 
s 1.033819815 _0_ MAC  --- 0 ARP 86 [13a 1 0 806] ------- [REPLY 0/0 1/1]
r 1.034508285 _1_ MAC  --- 0 ARP 28 [13a 1 0 806] ------- [REPLY 0/0 1/1]
s 1.034518285 _1_ MAC  --- 0 ACK 38 [0 0 0 0] 
r 1.034822755 _0_ MAC  --- 0 ACK 38 [0 0 0 0] 
s 1.035052285 _1_ MAC  --- 0 RTS 44 [5ae 0 1 0] 
r 1.035404755 _0_ MAC  --- 0 RTS 44 [5ae 0 1 0] 
s 1.035414755 _0_ MAC  --- 0 CTS 38 [474 1 0 0] 
r 1.035719225 _1_ MAC  --- 0 CTS 38 [474 1 0 0] 
s 1.035729225 _1_ MAC  --- 0 AODV 102 [13a 0 1 800] ------- [4:255 0:255 27 0] [0x4 4 [4 4] 10.000000] (REPLY)
r 1.036545696 _0_ MAC  --- 0 AODV 44 [13a 0 1 800] ------- [4:255 0:255 27 0] [0x4 4 [4 4] 10.000000] (REPLY)
s 1.036555696 _0_ MAC  --- 0 ACK 38 [0 1 0 0] 
r 1.036570696 _0_ RTR  --- 0 AODV 44 [13a 0 1 800] ------- [4:255 0:255 27 0] [0x4 4 [4 4] 10.000000] (REPLY)
s 1.036570696 _0_ RTR  --- 0 cbr 532 [0 0 0 0] ------- [0:0 4:0 30 1] [0] 0 0
r 1.036860166 _1_ MAC  --- 0 ACK 38 [0 1 0 0] 
s 1.037209696 _0_ MAC  --- 0 RTS 44 [14ee 1 0 0] 
r 1.037562166 _1_ MAC  --- 0 RTS 44 [14ee 1 0 0] 
s 1.037572166 _1_ MAC  --- 0 CTS 38 [13b4 0 0 0] 
r 1.037876636 _0_ MAC  --- 0 CTS 38 [13b4 0 0 0] 
s 1.037886636 _0_ MAC  --- 0 cbr 590 [13a 1 0 800] ------- [0:0 4:0 30 1] [0] 0 0
r 1.042607106 _1_ MAC  --- 0 cbr 532 [13a 1 0 800] ------- [0:0 4:0 30 1] [0] 1 0
s 1.042617106 _1_ MAC  --- 0 ACK 38 [0 0 0 0] 
r 1.042632106 _1_ RTR  --- 0 cbr 532 [13a 1 0 800] ------- [0:0 4:0 30 1] [0] 1 0
f 1.042632106 _1_ RTR  --- 0 cbr 532 [13a 1 0 800] ------- [0:0 4:0 29 2] [0] 1 0
r 1.042921576 _0_ MAC  --- 0 ACK 38 [0 0 0 0] 
s 1.043051106 _1_ MAC  --- 0 RTS 44 [14ee 2 1 0] 
r 1.043403577 _2_ MAC  --- 0 RTS 44 [14ee 2 1 0] 
s 1.043413577 _2_ MAC  --- 0 CTS 38 [13b4 1 0 0] 
r 1.043718049 _1_ MAC  --- 0 CTS 38 [13b4 1 0 0] 
s 1.043728049 _1_ MAC  --- 0 cbr 590 [13a 2 1 800] ------- [0:0 4:0 29 2] [0] 1 0
r 1.048448520 _2_ MAC  --- 0 cbr 532 [13a 2 1 800] ------- [0:0 4:0 29 2] [0] 2 0
s 1.048458520 _2_ MAC  --- 0 ACK 38 [0 1 0 0] 
r 1.048473520 _2_ RTR  --- 0 cbr 532 [13a 2 1 800] ------- [0:0 4:0 29 2] [0] 2 0
f 1.048473520 _2_ RTR  --- 0 cbr 532 [13a 2 1 800] ------- [0:0 4:0 28 3] [0] 2 0
r 1.048762992 _1_ MAC  --- 0 ACK 38 [0 1 0 0] 
s 1.048892520 _2_ MAC  --- 0 RTS 44 [14ee 3 2 0] 
r 1.049244992 _3_ MAC  --- 0 RTS 44 [14ee 3 2 0] 
s 1.049254992 _3_ MAC  --- 0 CTS 38 [13b4 2 0 0] 
r 1.049559463 _2_ MAC  --- 0 CTS 38 [13b4 2 0 0] 
s 1.049569463 _2_ MAC  --- 0 cbr 590 [13a 3 2 800] ------- [0:0 4:0 28 3] [0] 2 0
r 1.054289935 _3_ MAC  --- 0 cbr 532 [13a 3 2 800] ------- [0:0 4:0 28 3] [0] 3 0
s 1.054299935 _3_ MAC  --- 0 ACK 38 [0 2 0 0] 
r 1.054314935 _3_ RTR  --- 0 cbr 532 [13a 3 2 800] ------- [0:0 4:0 28 3] [0] 3 0
f 1.054314935 _3_ RTR  --- 0 cbr 532 [13a 3 2 800] ------- [0:0 4:0 27 4] [0] 3 0
r 1.054604406 _2_ MAC  --- 0 ACK 38 [0 2 0 0] 
s 1.054853935 _3_ MAC  --- 0 RTS 44 [14ee 4 3 0] 
r 1.055206406 _4_ MAC  --- 0 RTS 44 [14ee 4 3 0] 
s 1.055216406 _4_ MAC  --- 0 CTS 38 [13b4 3 0 0] 
r 1.055520877 _3_ MAC  --- 0 CTS 38 [13b4 3 0 0] 
s 1.055530877 _3_ MAC  --- 0 cbr 590 [13a 4 3 800] ------- [0:0 4:0 27 4] [0] 3 0
r 1.060251349 _4_ MAC  --- 0 cbr 532 [13a 4 3 800] ------- [0:0 4:0 27 4] [0] 4 0
s 1.060261349 _4_ MAC  --- 0 ACK 38 [0 3 0 0] 
r 1.060276349 _4_ AGT  --- 0 cbr 532 [13a 4 3 800] ------- [0:0 4:0 27 4] [0] 4 0
r 1.060565820 _3_ MAC  --- 0 ACK 38 [0 3 0 0] 
s 1.100000000 _0_ AGT  --- 1 cbr 512 [0 0 0 0] ------- [0:0 4:0 32 0] [1] 0 0
r 1.100000000 _0_ RTR  --- 1 cbr 512 [0 0 0 0] ------- [0:0 4:0 32 0] [1] 0 0
s 1.100000000 _0_ RTR  --- 1 cbr 532 [0 0 0 0] ------- [0:0 4:0 30 1] [1] 0 0
s 1.100295000 _0_ MAC  --- 0 RTS 44 [14ee 1 0 0] 
r 1.100647468 _1_ MAC  --- 0 RTS 44 [14ee 1 0 0] 
s 1.100657468 _1_ MAC  --- 0 CTS 38 [13b4 0 0 0] 
r 1.100961936 _0_ MAC  --- 0 CTS 38 [13b4 0 0 0] 
s 1.100971936 _0_ MAC  --- 1 cbr 590 [13a 1 0 800] ------- [0:0 4:0 30 1] [1] 0 0
r 1.105692404 _1_ MAC  --- 1 cbr 532 [13a 1 0 800] ------- [0:0 4:0 30 1] [1] 1 0
s 1.105702404 _1_ MAC  --- 0 ACK 38 [0 0 0 0] 
r 1.105717404 _1_ RTR  --- 1 cbr 532 [13a 1 0 800] ------- [0:0 4:0 30 1] [1] 1 0
f 1.105717404 _1_ RTR  --- 1 cbr 532 [13a 1 0 800] ------- [0:0 4:0 29 2] [1] 1 0
r 1.106006872 _0_ MAC  --- 0 ACK 38 [0 0 0 0] 
s 1.106256404 _1_ MAC  --- 0 RTS 44 [14ee 2 1 0] 
r 1.106608876 _2_ MAC  --- 0 RTS 44 [14ee 2 1 0] 
s 1.106618876 _2_ MAC  --- 0 CTS 38 [13b4 1 0 0] 
r 1.106923347 _1_ MAC  --- 0 CTS 38 [13b4 1 0 0] 
s 1.106933347 _1_ MAC  --- 1 cbr 590 [13a 2 1 800] ------- [0:0 4:0 29 2] [1] 1 0
r 1.111653818 _2_ MAC  --- 1 cbr 532 [13a 2 1 800] ------- [0:0 4:0 29 2] [1] 2 0
s 1.111663818 _2_ MAC  --- 0 ACK 38 [0 1 0 0] 
r 1.111678818 _2_ RTR  --- 1 cbr 532 [13a 2 1 800] ------- [0:0 4:0 29 2] [1] 2 0
f 1.111678818 _2_ RTR  --- 1 cbr 532 [13a 2 1 800] ------- [0:0 4:0 28 3] [1] 2 0
r 1.111968290 _1_ MAC  --- 0 ACK 38 [0 1 0 0] 
s 1.112077818 _2_ MAC  --- 0 RTS 44 [14ee 3 2 0] 
r 1.112430290 _3_ MAC  --- 0 RTS 44 [14ee 3 2 0] 
s 1.112440290 _3_ MAC  --- 0 CTS 38 [13b4 2 0 0] 
r 1.112744761 _2_ MAC  --- 0 CTS 38 [13b4 2 0 0] 
s 1.112754761 _2_ MAC  --- 1 cbr 590 [13a 3 2 800] ------- [0:0 4:0 28 3] [1] 2 0
r 1.117475233 _3_ MAC  --- 1 cbr 532 [13a 3 2 800] ------- [0:0 4:0 28 3] [1] 3 0
s 1.117485233 _3_ MAC  --- 0 ACK 38 [0 2 0 0] 
r 1.117500233 _3_ RTR  --- 1 cbr 532 [13a 3 2 800] ------- [0:0 4:0 28 3] [1] 3 0
f 1.117500233 _3_ RTR  --- 1 cbr 532 [13a 3 2 800] ------- [0:0 4:0 27 4] [1] 3 0
r 1.117789704 _2_ MAC  --- 0 ACK 38 [0 2 0 0] 
s 1.118179233 _3_ MAC  --- 0 RTS 44 [14ee 4 3 0] 
r 1.118531704 _4_ MAC  --- 0 RTS 44 [14ee 4 3 0] 
s 1.118541704 _4_ MAC  --- 0 CTS 38 [13b4 3 0 0] 
r 1.118846175 _3_ MAC  --- 0 CTS 38 [13b4 3 0 0] 
s 1.118856175 _3_ MAC  --- 1 cbr 590 [13a 4 3 800] ------- [0:0 4:0 27 4] [1] 3 0
r 1.123576647 _4_ MAC  --- 1 cbr 532 [13a 4 3 800] ------- [0:0 4:0 27 4] [1] 4 0
s 1.123586647 _4_ MAC  --- 0 ACK 38 [0 3 0 0] 
r 1.123601647 _4_ AGT  --- 1 cbr 532 [13a 4 3 800] ------- [0:0 4:0 27 4] [1] 4 0
r 1.123891118 _3_ MAC  --- 0 ACK 38 [0 3 0 0] 
s 1.200000000 _0_ AGT  --- 2 cbr 512 [0 0 0 0] ------- [0:0 4:0 32 0] [2] 0 0
r 1.200000000 _0_ RTR  --- 2 cbr 512 [0 0 0 0] ------- [0:0 4:0 32 0] [2] 0 0
s 1.200000000 _0_ RTR  --- 2 cbr 532 [0 0 0 0] ------- [0:0 4:0 30 1] [2] 0 0
s 1.200255000 _0_ MAC  --- 0 RTS 44 [14ee 1 0 0] 
r 1.200607465 _1_ MAC  --- 0 RTS 44 [14ee 1 0 0] 
s 1.200617465 _1_ MAC  --- 0 CTS 38 [13b4 0 0 0] 
r 1.200921929 _0_ MAC  --- 0 CTS 38 [13b4 0 0 0] 
s 1.200931929 _0_ MAC  --- 2 cbr 590 [13a 1 0 800] ------- [0:0 4:0 30 1] [2] 0 0
r 1.205652394 _1_ MAC  --- 2 cbr 532 [13a 1 0 800] ------- [0:0 4:0 30 1] [2] 1 0
s 1.205662394 _1_ MAC  --- 0 ACK 38 [0 0 0 0] 
r 1.205677394 _1_ RTR  --- 2 cbr 532 [13a 1 0 800] ------- [0:0 4:0 30 1] [2] 1 0
f 1.205677394 _1_ RTR  --- 2 cbr 532 [13a 1 0 800] ------- [0:0 4:0 29 2] [2] 1 0
r 1.205966859 _0_ MAC  --- 0 ACK 38 [0 0 0 0] 
s 1.206296394 _1_ MAC  --- 0 RTS 44 [14ee 2 1 0] 
r 1.206648866 _2_ MAC  --- 0 RTS 44 [14ee 2 1 0] 
s 1.206658866 _2_ MAC  --- 0 CTS 38 [13b4 1 0 0] 
r 1.206963337 _1_ MAC  --- 0 CTS 38 [13b4 1 0 0] 
s 1.206973337 _1_ MAC  --- 2 cbr 590 [13a 2 1 800] ------- [0:0 4:0 29 2] [2] 1 0
r 1.211693808 _2_ MAC  --- 2 cbr 532 [13a 2 1 800] ------- [0:0 4:0 29 2] [2] 2 0
s 1.211703808 _2_ MAC  --- 0 ACK 38 [0 1 0 0] 
r 1.211718808 _2_ RTR  --- 2 cbr 532 [13a 2 1 800] ------- [0:0 4:0 29 2] [2] 2 0
f 1.211718808 _2_ RTR  --- 2 cbr 532 [13a 2 1 800] ------- [0:0 4:0 28 3] [2] 2 0
r 1.212008280 _1_ MAC  --- 0 ACK 38 [0 1 0 0] 
s 1.212057808 _2_ MAC  --- 0 RTS 44 [14ee 3 2 0] 
r 1.212410280 _3_ MAC  --- 0 RTS 44 [14ee 3 2 0] 
s 1.212420280 _3_ MAC  --- 0 CTS 38 [13b4 2 0 0] 
r 1.212724751 _2_ MAC  --- 0 CTS 38 [13b4 2 0 0] 
s 1.212734751 _2_ MAC  --- 2 cbr 590 [13a 3 2 800] ------- [0:0 4:0 28 3] [2] 2 0
r 1.217455223 _3_ MAC  --- 2 cbr 532 [13a 3 2 800] ------- [0:0 4:0 28 3] [2] 3 0
s 1.217465223 _3_ MAC  --- 0 ACK 38 [0 2 0 0] 
r 1.217480223 _3_ RTR  --- 2 cbr 532 [13a 3 2 800] ------- [0:0 4:0 28 3] [2] 3 0
f 1.217480223 _3_ RTR  --- 2 cbr 532 [13a 3 2 800] ------- [0:0 4:0 27 4] [2] 3 0
r 1.217769694 _2_ MAC  --- 0 ACK 38 [0 2 0 0] 
s 1.218139223 _3_ MAC  --- 0 RTS 44 [14ee 4 3 0] 
r 1.218491694 _4_ MAC  --- 0 RTS 44 [14ee 4 3 0] 
s 1.218501694 _4_ MAC  --- 0 CTS 38 [13b4 3 0 0] 
r 1.218806165 _3_ MAC  --- 0 CTS 38 [13b4 3 0 0] 
s 1.218816165 _3_ MAC  --- 2 cbr 590 [13a 4 3 800] ------- [0:0 4:0 27 4] [2] 3 0
r 1.223536637 _4_ MAC  --- 2 cbr 532 [13a 4 3 800] ------- [0:0 4:0 27 4] [2] 4 0
s 1.223546637 _4_ MAC  --- 0 ACK 38 [0 3 0 0] 
r 1.223561637 _4_ AGT  --- 2 cbr 532 [13a 4 3 800] ------- [0:0 4:0 27 4] [2] 4 0
r 1.223851108 _3_ MAC  --- 0 ACK 38 [0 3 0 0] 
s 1.300000000 _0_ AGT  --- 3 cbr 512 [0 0 0 0] ------- [0:0 4:0 32 0] [3] 0 0
r 1.300000000 _0_ RTR  --- 3 cbr 512 [0 0 0 0] ------- [0:0 4:0 32 0] [3] 0 0
s 1.300000000 _0_ RTR  --- 3 cbr 532 [0 0 0 0] ------- [0:0 4:0 30 1] [3] 0 0
s 1.300155000 _0_ MAC  --- 0 RTS 44 [14ee 1 0 0] 
r 1.300507461 _1_ MAC  --- 0 RTS 44 [14ee 1 0 0] 
s 1.300517461 _1_ MAC  --- 0 CTS 38 [13b4 0 0 0] 
r 1.300821923 _0_ MAC  --- 0 CTS 38 [13b4 0 0 0] 
s 1.300831923 _0_ MAC  --- 3 cbr 590 [13a 1 0 800] ------- [0:0 4:0 30 1] [3] 0 0
r 1.305552384 _1_ MAC  --- 3 cbr 532 [13a 1 0 800] ------- [0:0 4:0 30 1] [3] 1 0
s 1.305562384 _1_ MAC  --- 0 ACK 38 [0 0 0 0] 
r 1.305577384 _1_ RTR  --- 3 cbr 532 [13a 1 0 800] ------- [0:0 4:0 30 1] [3] 1 0
f 1.305577384 _1_ RTR  --- 3 cbr 532 [13a 1 0 800] ------- [0:0 4:0 29 2] [3] 1 0
r 1.305866845 _0_ MAC  --- 0 ACK 38 [0 0 0 0] 
s 1.306216384 _1_ MAC  --- 0 RTS 44 [14ee 2 1 0] 
r 1.306568856 _2_ MAC  --- 0 RTS 44 [14ee 2 1 0] 
s 1.306578856 _2_ MAC  --- 0 CTS 38 [13b4 1 0 0] 
r 1.306883327 _1_ MAC  --- 0 CTS 38 [13b4 1 0 0] 
s 1.306893327 _1_ MAC  --- 3 cbr 590 [13a 2 1 800] ------- [0:0 4:0 29 2] [3] 1 0
r 1.311613798 _2_ MAC  --- 3 cbr 532 [13a 2 1 800] ------- [0:0 4:0 29 2] [3] 2 0
s 1.311623798 _2_ MAC  --- 0 ACK 38 [0 1 0 0] 
r 1.311638798 _2_ RTR  --- 3 cbr 532 [13a 2 1 800] ------- [0:0 4:0 29 2] [3] 2 0
f 1.311638798 _2_ RTR  --- 3 cbr 532 [13a 2 1 800] ------- [0:0 4:0 28 3] [3] 2 0
r 1.311928270 _1_ MAC  --- 0 ACK 38 [0 1 0 0] 
s 1.312217798 _2_ MAC  --- 0 RTS 44 [14ee 3 2 0] 
r 1.312570270 _3_ MAC  --- 0 RTS 44 [14ee 3 2 0] 
s 1.312580270 _3_ MAC  --- 0 CTS 38 [13b4 2 0 0] 
r 1.312884741 _2_ MAC  --- 0 CTS 38 [13b4 2 0 0] 
s 1.312894741 _2_ MAC  --- 3 cbr 590 [13a 3 2 800] ------- [0:0 4:0 28 3] [3] 2 0
r 1.317615213 _3_ MAC  --- 3 cbr 532 [13a 3 2 800] ------- [0:0 4:0 28 3] [3] 3 0
s 1.317625213 _3_ MAC  --- 0 ACK 38 [0 2 0 0] 
r 1.317640213 _3_ RTR  --- 3 cbr 532 [13a 3 2 800] ------- [0:0 4:0 28 3] [3] 3 0
f 1.317640213 _3_ RTR  --- 3 cbr 532 [13a 3 2 800] ------- [0:0 4:0 27 4] [3] 3 0
r 1.317929684 _2_ MAC  --- 0 ACK 38 [0 2 0 0] 
s 1.318259213 _3_ MAC  --- 0 RTS 44 [14ee 4 3 0] 
r 1.318611684 _4_ MAC  --- 0 RTS 44 [14ee 4 3 0] 
s 1.318621684 _4_ MAC  --- 0 CTS 38 [13b4 3 0 0] 
r 1.318926155 _3_ MAC  --- 0 CTS 38 [13b4 3 0 0] 
s 1.318936155 _3_ MAC  --- 3 cbr 590 [13a 4 3 800] ------- [0:0 4:0 27 4] [3] 3 0
r 1.323656627 _4_ MAC  --- 3 cbr 532 [13a 4 3 800] ------- [0:0 4:0 27 4] [3] 4 0
s 1.323666627 _4_ MAC  --- 0 ACK 38 [0 3 0 0] 
r 1.323681627 _4_ AGT  --- 3 cbr 532 [13a 4 3 800] ------- [0:0 4:0 27 4] [3] 4 0
r 1.323971098 _3_ MAC  --- 0 ACK 38 [0 3 0 0] 
s 1.400000000 _0_ AGT  --- 4 cbr 512 [0 0 0 0] ------- [0:0 4:0 32 0] [4] 0 0
r 1.400000000 _0_ RTR  --- 4 cbr 512 [0 0 0 0] ------- [0:0 4:0 32 0] [4] 0 0
s 1.400000000 _0_ RTR  --- 4 cbr 532 [0 0 0 0] ------- [0:0 4:0 30 1] [4] 0 0
s 1.400315000 _0_ MAC  --- 0 RTS 44 [14ee 1 0 0] 
r 1.400667458 _1_ MAC  --- 0 RTS 44 [14ee 1 0 0] 
s 1.400677458 _1_ MAC  --- 0 CTS 38 [13b4 0 0 0] 
r 1.400981916 _0_ MAC  --- 0 CTS 38 [13b4 0 0 0] 
s 1.400991916 _0_ MAC  --- 4 cbr 590 [13a 1 0 800] ------- [0:0 4:0 30 1] [4] 0 0
r 1.405712374 _1_ MAC  --- 4 cbr 532 [13a 1 0 800] ------- [0:0 4:0 30 1] [4] 1 0
s 1.405722374 _1_ MAC  --- 0 ACK 38 [0 0 0 0] 
r 1.405737374 _1_ RTR  --- 4 cbr 532 [13a 1 0 800] ------- [0:0 4:0 30 1] [4] 1 0
f 1.405737374 _1_ RTR  --- 4 cbr 532 [13a 1 0 800] ------- [0:0 4:0 29 2] [4] 1 0
r 1.406026832 _0_ MAC  --- 0 ACK 38 [0 0 0 0] 
s 1.406196374 _1_ MAC  --- 0 RTS 44 [14ee 2 1 0] 
r 1.406548846 _2_ MAC  --- 0 RTS 44 [14ee 2 1 0] 
s 1.406558846 _2_ MAC  --- 0 CTS 38 [13b4 1 0 0] 
r 1.406863317 _1_ MAC  --- 0 CTS 38 [13b4 1 0 0] 
s 1.406873317 _1_ MAC  --- 4 cbr 590 [13a 2 1 800] ------- [0:0 4:0 29 2] [4] 1 0
r 1.411593788 _2_ MAC  --- 4 cbr 532 [13a 2 1 800] ------- [0:0 4:0 29 2] [4] 2 0
s 1.411603788 _2_ MAC  --- 0 ACK 38 [0 1 0 0] 
r 1.411618788 _2_ RTR  --- 4 cbr 532 [13a 2 1 800] ------- [0:0 4:0 29 2] [4] 2 0
f 1.411618788 _2_ RTR  --- 4 cbr 532 [13a 2 1 800] ------- [0:0 4:0 28 3] [4] 2 0
r 1.411908260 _1_ MAC  --- 0 ACK 38 [0 1 0 0] 
s 1.411997788 _2_ MAC  --- 0 RTS 44 [14ee 3 2 0] 
r 1.412350260 _3_ MAC  --- 0 RTS 44 [14ee 3 2 0] 
s 1.412360260 _3_ MAC  --- 0 CTS 38 [13b4 2 0 0] 
r 1.412664731 _2_ MAC  --- 0 CTS 38 [13b4 2 0 0] 
s 1.412674731 _2_ MAC  --- 4 cbr 590 [13a 3 2 800] ------- [0:0 4:0 28 3] [4] 2 0
r 1.417395203 _3_ MAC  --- 4 cbr 532 [13a 3 2 800] ------- [0:0 4:0 28 3] [4] 3 0
s 1.417405203 _3_ MAC  --- 0 ACK 38 [0 2 0 0] 
r 1.417420203 _3_ RTR  --- 4 cbr 532 [13a 3 2 800] ------- [0:0 4:0 28 3] [4] 3 0
f 1.417420203 _3_ RTR  --- 4 cbr 532 [13a 3 2 800] ------- [0:0 4:0 27 4] [4] 3 0
r 1.417709674 _2_ MAC  --- 0 ACK 38 [0 2 0 0] 
s 1.417879203 _3_ MAC  --- 0 RTS 44 [14ee 4 3 0] 
r 1.418231674 _4_ MAC  --- 0 RTS 44 [14ee 4 3 0] 
s 1.418241674 _4_ MAC  --- 0 CTS 38 [13b4 3 0 0] 
r 1.418546145 _3_ MAC  --- 0 CTS 38 [13b4 3 0 0] 
s 1.418556145 _3_ MAC  --- 4 cbr 590 [13a 4 3 800] ------- [0:0 4:0 27 4] [4] 3 0
r 1.423276617 _4_ MAC  --- 4 cbr 532 [13a 4 3 800] ------- [0:0 4:0 27 4] [4] 4 0
s 1.423286617 _4_ MAC  --- 0 ACK 38 [0 3 0 0] 
r 1.423301617 _4_ AGT  --- 4 cbr 532 [13a 4 3 800] ------- [0:0 4:0 27 4] [4] 4 0
r 1.423591088 _3_ MAC  --- 0 ACK 38 [0 3 0 0] 
s 1.500000000 _0_ AGT  --- 5 cbr 512 [0 0 0 0] ------- [0:0 4:0 32 0] [5] 0 0
r 1.500000000 _0_ RTR  --- 5 cbr 512 [0 0 0 0] ------- [0:0 4:0 32 0] [5] 0 0
s 1.500000000 _0_ RTR  --- 5 cbr 532 [0 0 0 0] ------- [0:0 4:0 30 1] [5] 0 0
s 1.500155000 _0_ MAC  --- 0 RTS 44 [14ee 1 0 0] 
r 1.500507455 _1_ MAC  --- 0 RTS 44 [14ee 1 0 0] 
s 1.500517455 _1_ MAC  --- 0 CTS 38 [13b4 0 0 0] 
r 1.500821909 _0_ MAC  --- 0 CTS 38 [13b4 0 0 0] 
s 1.500831909 _0_ MAC  --- 5 cbr 590 [13a 1 0 800] ------- [0:0 4:0 30 1] [5] 0 0
r 1.505552364 _1_ MAC  --- 5 cbr 532 [13a 1 0 800] ------- [0:0 4:0 30 1] [5] 1 0
s 1.505562364 _1_ MAC  --- 0 ACK 38 [0 0 0 0] 
r 1.505577364 _1_ RTR  --- 5 cbr 532 [13a 1 0 800] ------- [0:0 4:0 30 1] [5] 1 0
f 1.505577364 _1_ RTR  --- 5 cbr 532 [13a 1 0 800] ------- [0:0 4:0 29 2] [5] 1 0
r 1.505866819 _0_ MAC  --- 0 ACK 38 [0 0 0 0] 
s 1.506176364 _1_ MAC  --- 0 RTS 44 [14ee 2 1 0] 
r 1.506528836 _2_ MAC  --- 0 RTS 44 [14ee 2 1 0] 
s 1.506538836 _2_ MAC  --- 0 CTS 38 [13b4 1 0 0] 
r 1.506843307 _1_ MAC  --- 0 CTS 38 [13b4 1 0 0] 
s 1.506853307 _1_ MAC  --- 5 cbr 590 [13a 2 1 800] ------- [0:0 4:0 29 2] [5] 1 0
r 1.511573778 _2_ MAC  --- 5 cbr 532 [13a 2 1 800] ------- [0:0 4:0 29 2] [5] 2 0
s 1.511583778 _2_ MAC  --- 0 ACK 38 [0 1 0 0] 
r 1.511598778 _2_ RTR  --- 5 cbr 532 [13a 2 1 800] ------- [0:0 4:0 29 2] [5] 2 0
f 1.511598778 _2_ RTR  --- 5 cbr 532 [13a 2 1 800] ------- [0:0 4:0 28 3] [5] 2 0
r 1.511888250 _1_ MAC  --- 0 ACK 38 [0 1 0 0] 
s 1.511997778 _2_ MAC  --- 0 RTS 44 [14ee 3 2 0] 
r 1.512350250 _3_ MAC  --- 0 RTS 44 [14ee 3 2 0] 
s 1.512360250 _3_ MAC  --- 0 CTS 38 [13b4 2 0 0] 
r 1.512664721 _2_ MAC  --- 0 CTS 38 [13b4 2 0 0] 
s 1.512674721 _2_ MAC  --- 5 cbr 590 [13a 3 2 800] ------- [0:0 4:0 28 3] [5] 2 0
r 1.517395193 _3_ MAC  --- 5 cbr 532 [13a 3 2 800] ------- [0:0 4:0 28 3] [5] 3 0
s 1.517405193 _3_ MAC  --- 0 ACK 38 [0 2 0 0] 
r 1.517420193 _3_ RTR  --- 5 cbr 532 [13a 3 2 800] ------- [0:0 4:0 28 3] [5] 3 0
f 1.517420193 _3_ RTR  --- 5 cbr 532 [13a 3 2 800] ------- [0:0 4:0 27 4] [5] 3 0
r 1.517709664 _2_ MAC  --- 0 ACK 38 [0 2 0 0] 
s 1.518359193 _3_ MAC  --- 0 RTS 44 [14ee 4 3 0] 
r 1.518711664 _4_ MAC  --- 0 RTS 44 [14ee 4 3 0] 
s 1.518721664 _4_ MAC  --- 0 CTS 38 [13b4 3 0 0] 
r 1.519026135 _3_ MAC  --- 0 CTS 38 [13b4 3 0 0] 
s 1.519036135 _3_ MAC  --- 5 cbr 590 [13a 4 3 800] ------- [0:0 4:0 27 4] [5] 3 0
r 1.523756607 _4_ MAC  --- 5 cbr 532 [13a 4 3 800] ------- [0:0 4:0 27 4] [5] 4 0
s 1.523766607 _4_ MAC  --- 0 ACK 38 [0 3 0 0] 
r 1.523781607 _4_ AGT  --- 5 cbr 532 [13a 4 3 800] ------- [0:0 4:0 27 4] [5] 4 0
r 1.524071078 _3_ MAC  --- 0 ACK 38 [0 3 0 0] 
s 1.600000000 _0_ AGT  --- 6 cbr 512 [0 0 0 0] ------- [0:0 4:0 32 0] [6] 0 0
r 1.600000000 _0_ RTR  --- 6 cbr 512 [0 0 0 0] ------- [0:0 4:0 32 0] [6] 0 0
s 1.600000000 _0_ RTR  --- 6 cbr 532 [0 0 0 0] ------- [0:0 4:0 30 1] [6] 0 0
s 1.600655000 _0_ MAC  --- 0 RTS 44 [14ee 1 0 0] 
r 1.601007451 _1_ MAC  --- 0 RTS 44 [14ee 1 0 0] 
s 1.601017451 _1_ MAC  --- 0 CTS 38 [13b4 0 0 0] 
r 1.601321903 _0_ MAC  --- 0 CTS 38 [13b4 0 0 0] 
s 1.601331903 _0_ MAC  --- 6 cbr 590 [13a 1 0 800] ------- [0:0 4:0 30 1] [6] 0 0
r 1.606052354 _1_ MAC  --- 6 cbr 532 [13a 1 0 800] ------- [0:0 4:0 30 1] [6] 1 0
s 1.606062354 _1_ MAC  --- 0 ACK 38 [0 0 0 0] 
r 1.606077354 _1_ RTR  --- 6 cbr 532 [13a 1 0 800] ------- [0:0 4:0 30 1] [6] 1 0
f 1.606077354 _1_ RTR  --- 6 cbr 532 [13a 1 0 800] ------- [0:0 4:0 29 2] [6] 1 0
r 1.606366805 _0_ MAC  --- 0 ACK 38 [0 0 0 0] 
s 1.606536354 _1_ MAC  --- 0 RTS 44 [14ee 2 1 0] 
r 1.606888826 _2_ MAC  --- 0 RTS 44 [14ee 2 1 0] 
s 1.606898826 _2_ MAC  --- 0 CTS 38 [13b4 1 0 0] 
r 1.607203297 _1_ MAC  --- 0 CTS 38 [13b4 1 0 0] 
s 1.607213297 _1_ MAC  --- 6 cbr 590 [13a 2 1 800] ------- [0:0 4:0 29 2] [6] 1 0
r 1.611933768 _2_ MAC  --- 6 cbr 532 [13a 2 1 800] ------- [0:0 4:0 29 2] [6] 2 0
s 1.611943768 _2_ MAC  --- 0 ACK 38 [0 1 0 0] 
r 1.611958768 _2_ RTR  --- 6 cbr 532 [13a 2 1 800] ------- [0:0 4:0 29 2] [6] 2 0
f 1.611958768 _2_ RTR  --- 6 cbr 532 [13a 2 1 800] ------- [0:0 4:0 28 3] [6] 2 0
r 1.612248240 _1_ MAC  --- 0 ACK 38 [0 1 0 0] 
s 1.612737768 _2_ MAC  --- 0 RTS 44 [14ee 3 2 0] 
r 1.613090240 _3_ MAC  --- 0 RTS 44 [14ee 3 2 0] 
s 1.613100240 _3_ MAC  --- 0 CTS 38 [13b4 2 0 0] 
r 1.613404711 _2_ MAC  --- 0 CTS 38 [13b4 2 0 0] 
s 1.613414711 _2_ MAC  --- 6 cbr 590 [13a 3 2 800] ------- [0:0 4:0 28 3] [6] 2 0
r 1.618135183 _3_ MAC  --- 6 cbr 532 [13a 3 2 800] ------- [0:0 4:0 28 3] [6] 3 0
s 1.618145183 _3_ MAC  --- 0 ACK 38 [0 2 0 0] 
r 1.618160183 _3_ RTR  --- 6 cbr 532 [13a 3 2 800] ------- [0:0 4:0 28 3] [6] 3 0
f 1.618160183 _3_ RTR  --- 6 cbr 532 [13a 3 2 800] ------- [0:0 4:0 27 4] [6] 3 0
r 1.618449654 _2_ MAC  --- 0 ACK 38 [0 2 0 0] 
s 1.618799183 _3_ MAC  --- 0 RTS 44 [14ee 4 3 0] 
r 1.619151654 _4_ MAC  --- 0 RTS 44 [14ee 4 3 0] 
s 1.619161654 _4_ MAC  --- 0 CTS 38 [13b4 3 0 0] 
r 1.619466125 _3_ MAC  --- 0 CTS 38 [13b4 3 0 0] 
s 1.619476125 _3_ MAC  --- 6 cbr 590 [13a 4 3 800] ------- [0:0 4:0 27 4] [6] 3 0
r 1.624196597 _4_ MAC  --- 6 cbr 532 [13a 4 3 800] ------- [0:0 4:0 27 4] [6] 4 0
s 1.624206597 _4_ MAC  --- 0 ACK 38 [0 3 0 0] 
r 1.624221597 _4_ AGT  --- 6 cbr 532 [13a 4 3 800] ------- [0:0 4:0 27 4] [6] 4 0
r 1.624511068 _3_ MAC  --- 0 ACK 38 [0 3 0 0] 
s 1.700000000 _0_ AGT  --- 7 cbr 512 [0 0 0 0] ------- [0:0 4:0 32 0] [7] 0 0
r 1.700000000 _0_ RTR  --- 7 cbr 512 [0 0 0 0] ------- [0:0 4:0 32 0] [7] 0 0
s 1.700000000 _0_ RTR  --- 7 cbr 532 [0 0 0 0] ------- [0:0 4:0 30 1] [7] 0 0
s 1.700415000 _0_ MAC  --- 0 RTS 44 [14ee 1 0 0] 
r 1.700767448 _1_ MAC  --- 0 RTS 44 [14ee 1 0 0] 
s 1.700777448 _1_ MAC  --- 0 CTS 38 [13b4 0 0 0] 
r 1.701081896 _0_ MAC  --- 0 CTS 38 [13b4 0 0 0] 
s 1.701091896 _0_ MAC  --- 7 cbr 590 [13a 1 0 800] ------- [0:0 4:0 30 1] [7] 0 0
r 1.705812344 _1_ MAC  --- 7 cbr 532 [13a 1 0 800] ------- [0:0 4:0 30 1] [7] 1 0
s 1.705822344 _1_ MAC  --- 0 ACK 38 [0 0 0 0] 
r 1.705837344 _1_ RTR  --- 7 cbr 532 [13a 1 0 800] ------- [0:0 4:0 30 1] [7] 1 0
f 1.705837344 _1_ RTR  --- 7 cbr 532 [13a 1 0 800] ------- [0:0 4:0 29 2] [7] 1 0
r 1.706126792 _0_ MAC  --- 0 ACK 38 [0 0 0 0] 
s 1.706216344 _1_ MAC  --- 0 RTS 44 [14ee 2 1 0] 
r 1.706568816 _2_ MAC  --- 0 RTS 44 [14ee 2 1 0] 
s 1.706578816 _2_ MAC  --- 0 CTS 38 [13b4 1 0 0] 
r 1.706883287 _1_ MAC  --- 0 CTS 38 [13b4 1 0 0] 
s 1.706893287 _1_ MAC  --- 7 cbr 590 [13a 2 1 800] ------- [0:0 4:0 29 2] [7] 1 0
r 1.711613758 _2_ MAC  --- 7 cbr 532 [13a 2 1 800] ------- [0:0 4:0 29 2] [7] 2 0
s 1.711623758 _2_ MAC  --- 0 ACK 38 [0 1 0 0] 
r 1.711638758 _2_ RTR  --- 7 cbr 532 [13a 2 1 800] ------- [0:0 4:0 29 2] [7] 2 0
f 1.711638758 _2_ RTR  --- 7 cbr 532 [13a 2 1 800] ------- [0:0 4:0 28 3] [7] 2 0
r 1.711928230 _1_ MAC  --- 0 ACK 38 [0 1 0 0] 
s 1.712197758 _2_ MAC  --- 0 RTS 44 [14ee 3 2 0] 
r 1.712550230 _3_ MAC  --- 0 RTS 44 [14ee 3 2 0] 
s 1.712560230 _3_ MAC  --- 0 CTS 38 [13b4 2 0 0] 
r 1.712864701 _2_ MAC  --- 0 CTS 38 [13b4 2 0 0] 
s 1.712874701 _2_ MAC  --- 7 cbr 590 [13a 3 2 800] ------- [0:0 4:0 28 3] [7] 2 0
r 1.717595173 _3_ MAC  --- 7 cbr 532 [13a 3 2 800] ------- [0:0 4:0 28 3] [7] 3 0
s 1.717605173 _3_ MAC  --- 0 ACK 38 [0 2 0 0] 
r 1.717620173 _3_ RTR  --- 7 cbr 532 [13a 3 2 800] ------- [0:0 4:0 28 3] [7] 3 0
f 1.717620173 _3_ RTR  --- 7 cbr 532 [13a 3 2 800] ------- [0:0 4:0 27 4] [7] 3 0
r 1.717909644 _2_ MAC  --- 0 ACK 38 [0 2 0 0] 
s 1.718119173 _3_ MAC  --- 0 RTS 44 [14ee 4 3 0] 
r 1.718471644 _4_ MAC  --- 0 RTS 44 [14ee 4 3 0] 
s 1.718481644 _4_ MAC  --- 0 CTS 38 [13b4 3 0 0] 
r 1.718786115 _3_ MAC  --- 0 CTS 38 [13b4 3 0 0] 
s 1.718796115 _3_ MAC  --- 7 cbr 590 [13a 4 3 800] ------- [0:0 4:0 27 4] [7] 3 0
r 1.723516587 _4_ MAC  --- 7 cbr 532 [13a 4 3 800] ------- [0:0 4:0 27 4] [7] 4 0
s 1.723526587 _4_ MAC  --- 0 ACK 38 [0 3 0 0] 
r 1.723541587 _4_ AGT  --- 7 cbr 532 [13a 4 3 800] ------- [0:0 4:0 27 4] [7] 4 0
r 1.723831058 _3_ MAC  --- 0 ACK 38 [0 3 0 0] 
s 1.800000000 _0_ AGT  --- 8 cbr 512 [0 0 0 0] ------- [0:0 4:0 32 0] [8] 0 0
r 1.800000000 _0_ RTR  --- 8 cbr 512 [0 0 0 0] ------- [0:0 4:0 32 0] [8] 0 0
s 1.800000000 _0_ RTR  --- 8 cbr 532 [0 0 0 0] ------- [0:0 4:0 30 1] [8] 0 0
s 1.800195000 _0_ MAC  --- 0 RTS 44 [14ee 1 0 0] 
r 1.800547445 _1_ MAC  --- 0 RTS 44 [14ee 1 0 0] 
s 1.800557445 _1_ MAC  --- 0 CTS 38 [13b4 0 0 0] 
r 1.800861889 _0_ MAC  --- 0 CTS 38 [13b4 0 0 0] 
s 1.800871889 _0_ MAC  --- 8 cbr 590 [13a 1 0 800] ------- [0:0 4:0 30 1] [8] 0 0
r 1.805592334 _1_ MAC  --- 8 cbr 532 [13a 1 0 800] ------- [0:0 4:0 30 1] [8] 1 0
s 1.805602334 _1_ MAC  --- 0 ACK 38 [0 0 0 0] 